BEGIN_CFG
 Size
    1
 SuperCell
    0.000000       1.000000       0.000000
    0.000000       0.000000       1.000000
    1.000000       0.000000       0.000000
   AtomData:  id type       cartes_x      cartes_y      cartes_z
             1    0        0.00000000   0.00000000   0.00000000
 Feature   conf_id  Random
END_CFG

BEGIN_CFG
 Size
    1
 SuperCell
    0.000000       1.000000       0.000000
    0.000000       0.000000       1.000000
    1.000000       0.000000       0.000000
   AtomData:  id type       cartes_x      cartes_y      cartes_z
             1    1        0.00000000   0.00000000   0.00000000
 Feature   conf_id  Random
END_CFG

